LAMMPS data file via write_data, version 23 Jun 2022, timestep = 0

19422 atoms
7 atom types
6292 bonds
1 bond types
3146 angles
1 angle types

0 57.2 xlo xhi
0 102.1 ylo yhi
0 160 zlo zhi

Masses

1 12.01115
2 12.01115
3 12.01115
4 12.01115
5 16.043
6 15.9994
7 1.008

Bond Coeffs # harmonic

1 0 0.9572

Angle Coeffs # harmonic

1 0 104.52

Atoms # full

#atom-ID molecule-ID atom-type q x y z #
41805 19639 7 0.5564 19.134202240534698 33.61199018590266 19.179331595503648 0 0 0
24745 13953 6 -1.1128 23.09162004279767 26.609545008142675 17.42403918507073 0 1 0
17258 11457 7 0.5564 21.43321693712758 26.92184159840139 24.50921363880374 -1 0 0
28801 15305 6 -1.1128 26.779875331347327 26.19115112002991 20.969635423008157 0 0 0
17401 11505 6 -1.1128 21.43677801217174 33.556504153974224 25.57127167800578 0 0 0
22710 13274 7 0.5564 23.227677860352266 25.863764301957744 24.414644979102324 0 1 0
28803 15305 7 0.5564 26.675126658814037 26.915592578196666 20.352833871393155 0 0 0
28802 15305 7 0.5564 27.359914355697708 25.575932784441697 20.520978563189153 0 0 0
24746 13953 7 0.5564 23.38755569249955 25.761266779697813 17.75430963668813 0 1 0
17402 11505 7 0.5564 20.55736781730553 33.19541056396856 25.45955003359031 0 0 0
17257 11457 6 -1.1128 21.029813037579313 27.752814502324018 24.760175360564226 -1 0 0
39095 18736 7 0.5564 27.329586555818075 27.075467512442735 22.56430323493825 0 0 0
17259 11457 7 0.5564 21.493050879405672 28.013750658705515 25.556137915487206 -1 0 0
32873 16662 7 0.5564 21.813624826690848 28.74167371787527 19.350170106311595 0 0 0
23254 13456 6 -1.1128 25.043115017260376 29.837055787348568 24.98257379625398 0 1 0
32872 16662 6 -1.1128 22.0404982253402 27.87530912249261 19.688064590275168 0 0 0
32874 16662 7 0.5564 22.302912844985922 27.377009269362446 18.91406996601262 0 0 0
40545 19219 7 0.5564 22.346152910285408 29.36612087884365 22.32983178416981 0 0 0
39096 18736 7 0.5564 26.93725535538568 28.405787254476163 23.171116212305122 0 0 0
21562 12892 6 -1.1128 28.57297909323967 32.4315405197352 23.83512235820732 0 0 0
39094 18736 6 -1.1128 27.301596192244126 27.54952477340451 23.39539873209722 0 0 0
40544 19219 7 0.5564 22.642321657781572 28.54563620859253 21.0925023408574 0 0 0
21564 12892 7 0.5564 28.11111949501124 31.776869497473097 23.311362760785137 0 0 0
17195 11436 7 0.5564 19.86215685728333 29.656065201998917 26.127854069479337 -1 0 0
40543 19219 6 -1.1128 23.066783501596493 28.97813964575662 21.833450928676406 0 0 0
39818 18977 7 0.5564 25.584245318599528 27.832650005163124 18.673351365067358 0 0 0
41712 19608 7 0.5564 19.94087061700083 26.85877149449134 19.51565895041928 0 0 0
39530 18881 7 0.5564 24.289428823942284 27.823495441036393 23.9265739003847 0 0 0
17672 11595 7 0.5564 26.744766464160733 33.28893824351985 19.46489877725655 0 0 0
39531 18881 7 0.5564 25.53612985699194 27.019345905754463 23.62495240708736 0 0 0
33849 16987 7 0.5564 26.025662203879836 30.71209354072862 21.971060362115704 0 0 0
39819 18977 7 0.5564 26.892672012956364 28.59377550677444 18.64878014042082 0 0 0
39817 18977 6 -1.1128 26.1847929267428 28.32395914271872 19.23387783432826 0 0 0
33847 16987 6 -1.1128 26.524372791928442 30.569874762821534 22.775606148598754 0 0 0
33848 16987 7 0.5564 25.891439102041215 30.193031695565853 23.386848064349014 0 0 0
17671 11595 6 -1.1128 27.56453870623373 33.547156919762266 19.043556128691183 0 0 0
39529 18881 6 -1.1128 24.650397004339183 26.938503013345926 23.978752820855252 0 0 0
23256 13456 7 0.5564 25.626085254845577 30.10492590101702 25.692942276884366 0 1 0
23255 13456 7 0.5564 24.63366106751636 30.6507160369256 24.688400961801324 0 1 0
40074 19062 7 0.5564 26.685008308167664 34.03048882729237 25.548905144425056 0 0 0
40865 19326 7 0.5564 25.339319501923175 29.8041606133106 19.844532041489884 0 0 0
40866 19326 7 0.5564 24.210008064254122 29.79160880789584 20.852695389302102 0 0 0
40864 19326 6 -1.1128 24.79133628324213 30.382954076129856 20.374573906709212 0 0 0
17414 11509 7 0.5564 22.364209950560586 31.17097336812523 23.53783046202721 0 0 0
17413 11509 6 -1.1128 23.05084188672149 31.772689864497643 23.825418282739847 0 0 0
17415 11509 7 0.5564 22.61291456661682 32.35953230929111 24.441915188972242 0 0 0
17502 11538 7 0.5564 19.806407158740942 30.10618914173482 22.698825734853042 0 0 0
17501 11538 7 0.5564 20.63292348830167 29.337275209635003 23.707556453377276 0 0 0
17673 11595 7 0.5564 28.126043665194185 32.7755278474364 19.11794175981133 0 0 0
17500 11538 6 -1.1128 20.679671210367644 30.06604803333159 23.088736950558495 0 0 0
39695 18936 7 0.5564 19.617950727056055 32.648338720613076 20.98738019968619 0 0 0
40252 19122 6 -1.1128 24.827124344340447 32.89254771311735 19.497835759787797 0 0 0
40254 19122 7 0.5564 24.520021012988384 32.781970655290515 18.598006813917554 0 0 0
13191 10101 7 0.5564 22.816147104889428 32.68162514122425 22.06211592484957 0 0 0
13189 10101 6 -1.1128 22.506788938473157 33.20291600964695 21.321314966965847 0 0 0
41490 19534 7 0.5564 23.65629377459908 28.99279539510615 26.127953402978946 0 0 0
39694 18936 6 -1.1128 20.271234708857296 32.431424524919954 20.322248537010314 0 0 0
41488 19534 6 -1.1128 22.868659835628897 28.77521823591188 26.626476371721527 0 0 0
39696 18936 7 0.5564 21.0827904957081 32.82174213452278 20.64668842302251 0 0 0
13190 10101 7 0.5564 23.266594590543907 33.27321788125302 20.74340013409419 0 0 0
40253 19122 7 0.5564 24.94019438948982 31.999849242155737 19.82423502872343 0 0 0
31066 16060 6 -1.1128 20.69345231955887 30.04610534674234 18.676118061354586 0 0 0
31067 16060 7 0.5564 20.65220136863134 30.47773382768849 19.529480835299317 0 0 0
31068 16060 7 0.5564 21.06840173246029 30.705032349856477 18.09177151690552 0 0 0
38424 18512 7 0.5564 19.108082065741364 25.88746207414744 24.926887820501808 0 0 0
39407 18840 7 0.5564 20.107911890769042 25.618784895248552 12.277338617263165 0 0 0
24747 13953 7 0.5564 22.766800511551853 26.423988823728592 16.54296401708106 0 1 0
41189 19434 7 0.5564 27.71846154903437 27.862958830591012 15.044825978054563 0 0 0
41190 19434 7 0.5564 27.519620454223638 26.53574491844044 15.745440826169503 0 0 0
41188 19434 6 -1.1128 28.19921636084822 27.14412497428993 15.45517316707467 0 0 0
40713 19275 7 0.5564 23.011505264304965 32.64415847053989 16.76936355397873 0 0 0
40712 19275 7 0.5564 24.333826190868773 32.92844439515459 16.089255955521118 0 0 0
41097 19403 7 0.5564 19.74149691196837 27.872433539244913 13.832011858207913 0 0 0
40711 19275 6 -1.1128 23.93778103904893 32.80246933205341 16.951527007504108 0 0 0
38532 18548 7 0.5564 28.452607890380563 25.689031292927137 12.417914827608962 0 0 0
34888 17334 6 -1.1128 28.477796829130035 32.33159055117747 13.640527983194977 0 0 0
15080 10731 7 0.5564 27.58003182003537 33.896622467984415 17.092957148320487 0 -1 0
38426 18513 7 0.5564 26.54292683053751 33.057870317426506 15.371086066146106 0 0 0
30295 15803 6 -1.1128 22.5386798278562 26.162569036035293 14.57492571366639 0 0 0
31650 16254 7 0.5564 19.554205587109433 31.931421276925736 12.734762405412782 0 0 0
30296 15803 7 0.5564 21.65195480922442 25.810856174957085 14.495872933489974 0 0 0
38425 18513 6 -1.1128 25.787212385761116 32.763095362927814 14.86291589188462 0 0 0
35487 17533 7 0.5564 27.893276567383857 28.12446967598898 12.132723133496057 0 0 0
35485 17533 6 -1.1128 27.787041034061534 27.208262154528438 11.876773322725553 0 0 0
41095 19403 6 -1.1128 20.339220724898315 27.885384478773922 14.579534678879154 0 0 0
24536 13883 7 0.5564 26.428477591457124 30.79530152119281 14.898119967973974 0 0 0
24535 13883 6 -1.1128 26.95101574262301 29.994410950815276 14.940077999658604 0 0 0
15079 10731 6 -1.1128 27.95826098019411 33.779518312878764 16.22148645544564 0 -1 0
35486 17533 7 0.5564 27.1206112087708 27.226688212047815 11.18992277776011 0 0 0
30297 15803 7 0.5564 22.42630070843948 27.1115226623114 14.519332824898928 0 0 0
24537 13883 7 0.5564 27.593874670929267 30.09020296902549 14.237376700790238 0 0 0
34889 17334 7 0.5564 28.578293611478312 32.67872213978677 14.526886995909136 0 0 0
41096 19403 7 0.5564 19.810255968859252 27.576678242963425 15.315149129012225 0 0 0
40066 19060 6 -1.1128 24.239557123373103 29.039234100317262 14.41777940889604 0 0 0
30591 15901 7 0.5564 26.520419130214517 33.277213663100206 10.965084889636467 0 0 0
30589 15901 6 -1.1128 26.92985290800254 32.425733293336855 11.118633297560653 0 0 0
40068 19060 7 0.5564 24.292965663470127 29.439169539601792 13.549774701371849 0 0 0
19158 12090 7 0.5564 20.14121038638628 32.24270679023809 16.57905471568494 0 0 0
19157 12090 7 0.5564 21.314735273262485 31.413890767882236 16.101772268774248 0 0 0
19156 12090 6 -1.1128 21.081731989992715 32.11844597353651 16.706374041018776 0 0 0
40735 19283 6 -1.1128 21.33161024288239 31.8718639344622 13.180054626051847 0 0 0
40736 19283 7 0.5564 21.43915220792636 31.300142602782362 13.940187056344111 0 0 0
41357 19490 7 0.5564 21.511734937416374 33.69295409749373 13.391361621496854 0 0 0
40067 19060 7 0.5564 25.094281410420034 29.20966845816399 14.8135459262614 0 0 0
24548 13887 7 0.5564 21.192869737800873 29.440137815505487 14.647696473530566 0 0 0
30590 15901 7 0.5564 27.446839598073957 32.54812652190226 11.914859823003738 0 0 0
24547 13887 6 -1.1128 21.684536120696507 30.156609119780285 15.049149963962526 0 0 0
38427 18513 7 0.5564 26.036923429091605 32.91496114847881 13.95142636826985 0 0 0
18628 11914 6 -1.1128 23.63403785192389 32.391329749900365 11.778474497537845 -1 0 0
18629 11914 7 0.5564 24.20963133452359 31.62723249481208 11.811346085985354 -1 0 0
24549 13887 7 0.5564 22.601035227726413 29.89136841882301 14.972282504321857 0 0 0
18630 11914 7 0.5564 24.229059395993424 33.140925383221784 11.795438861637773 -1 0 0
40294 19136 6 -1.1128 24.969114176092866 27.336685871251575 11.38179132209958 0 0 0
40295 19136 7 0.5564 24.473847255450217 26.8112527305868 10.753410356863462 0 0 0
40296 19136 7 0.5564 24.83872504862363 26.893919300674376 12.220354679520801 0 0 0
40623 19245 7 0.5564 25.80821465150031 30.689115006586807 11.533476666754318 0 0 0
40621 19245 6 -1.1128 25.150752150826847 30.122882079605077 11.937649720906055 0 0 0
40622 19245 7 0.5564 25.302351520065464 29.262294390209828 11.546959416535305 0 0 0
40737 19283 7 0.5564 22.195114452088415 31.887330778293336 12.767316068305293 0 0 0
39221 18778 7 0.5564 23.31062681585634 18.285928554915618 17.15680414359079 0 1 0
13314 10142 7 0.5564 19.090966359790837 20.1600643125732 17.349731612543344 0 0 0
13313 10142 7 0.5564 20.524100255443148 20.63457585693568 17.236319812978792 0 0 0
41145 19419 7 0.5564 21.20205772924937 17.322028879684684 19.04681897565946 0 0 0
12848 9987 7 0.5564 27.80641222266997 24.748154357580283 17.995703658797147 0 0 0
17492 11535 7 0.5564 28.25395266753539 18.87839308700767 18.74276066122931 0 0 0
41454 19522 7 0.5564 26.519451818800448 21.36731338089747 17.738645566693673 0 0 0
40362 19158 7 0.5564 26.98044353225112 25.04725522355972 26.50953018277348 0 0 0
41243 19452 7 0.5564 21.94979095159983 22.526066599782947 17.672195321903292 0 0 0
19224 12112 7 0.5564 24.427363245861017 24.001256416201247 20.959928065849443 0 0 0
40794 19302 7 0.5564 19.41872321385482 17.057144430790974 25.022966494064086 0 0 0
13312 10142 6 -1.1128 19.908554608474535 20.22375993592118 17.843416621820257 0 0 0
40792 19302 6 -1.1128 20.236436453285485 17.10184794378158 24.527407674463642 0 0 0
19187 12100 7 0.5564 24.75839513394483 19.77240273129197 19.793323173411736 -1 0 0
28080 15064 7 0.5564 26.144708568487385 20.508979966034715 21.442600377982483 0 0 0
28078 15064 6 -1.1128 25.344479979951334 20.8451795362458 21.039070943422498 0 0 0
19188 12100 7 0.5564 24.817342196862203 19.645768720417202 18.28588022463764 -1 0 0
12847 9987 6 -1.1128 28.30223788545904 24.782564863190387 18.813752953563657 0 0 0
38291 18468 7 0.5564 26.66209668635992 24.379888031015998 24.2442297350064 0 0 0
34778 17297 7 0.5564 28.256455171289716 21.656160252548982 25.803826810828475 0 1 0
28511 15208 7 0.5564 24.058226282209173 21.59408997876155 24.667422713651554 0 0 0
22709 13274 7 0.5564 22.65993602016502 24.69591690748263 25.19291126475642 0 1 0
41725 19613 6 -1.1128 26.849995955015277 20.126955986261397 25.145860628222902 0 1 0
23015 13376 7 0.5564 26.267732294630083 22.949938054185335 22.6528262775143 0 0 0
23014 13376 6 -1.1128 27.15339567142776 22.752488135993957 22.957532878628466 0 0 0
23016 13376 7 0.5564 27.189120421565153 21.796442446266155 22.988068415191325 0 0 0
38888 18667 7 0.5564 24.82903764211678 23.736938423333903 18.884397189279365 0 0 0
38887 18667 6 -1.1128 24.289565346387324 24.084045585492266 18.17396202335974 0 0 0
15572 10895 7 0.5564 27.69957962531316 23.113132776406722 19.293868378589767 -1 0 0
15571 10895 6 -1.1128 27.286113725530594 22.25105185465105 19.24808987509673 -1 0 0
15573 10895 7 0.5564 26.568598289426138 22.295153880399216 19.880118024309045 -1 0 0
38889 18667 7 0.5564 23.420631817523944 23.713974919064448 18.32963515944232 0 0 0
41727 19613 7 0.5564 27.165355776783176 19.72262989650466 24.337590607860008 0 1 0
41726 19613 7 0.5564 25.92175514455685 20.295221600297726 24.983726324086945 0 1 0
28512 15208 7 0.5564 23.77445862251705 20.382881280453795 23.804668480639396 0 0 0
22708 13274 6 -1.1128 22.547790449803735 25.190805642800512 24.381282791507303 0 1 0
28510 15208 6 -1.1128 24.487219281354776 20.942749662757727 24.112487238800735 0 0 0
30636 15916 7 0.5564 28.562966656227363 21.007346169324276 19.582165820863015 0 0 0
28232 15115 7 0.5564 22.80239919898693 20.083671018601596 19.645680630107865 0 0 0
28231 15115 6 -1.1128 21.9600080066716 20.50753835329847 19.80983365119826 0 0 0
13899 10337 7 0.5564 21.59442178033766 19.26051189561673 22.426790316988225 0 0 0
28233 15115 7 0.5564 21.33904906926873 20.02763872605596 19.26180190280125 0 0 0
31210 16108 6 -1.1128 22.656603134814976 22.96054895908248 26.44092016995697 0 0 0
1250 1250 1 0 8.549998593823863 1.9587229039174947 9.999993643587125 0 0 0
1251 1251 1 0 8.549999632332149 3.376720802359936 9.999995394902731 0 0 0
1302 1302 1 0 8.550004612983843 6.212722001475149 9.999997072443861 0 0 0
1303 1303 1 0 8.550003264563122 7.630723120408769 9.99999595439321 0 0 0
2498 2498 1 0 5.200164382462559 0.5407219698815645 9.999955546597016 0 0 0
2499 2499 1 0 5.200140773209708 1.9587213447087923 9.99996483316064 0 0 0
2550 2550 1 0 5.200164237545916 4.794720986368713 9.999955763110387 0 0 0
2551 2551 1 0 5.200140526585481 6.212721491324867 9.99996477532693 0 0 0
3746 3746 1 0 1.848897977092277 1.9586221439290725 9.999457814512418 0 0 0
3747 3747 1 0 1.8486165932799452 3.376841988374726 9.999640138116085 0 0 0
3798 3798 1 0 1.8488948192679708 6.212621940966126 9.999459243945191 0 0 0
3799 3799 1 0 1.848615088367391 7.63084072624661 9.999640929299177 0 0 0
1249 1249 1 0 8.550000782766178 1.2497215370035 11.228018077232585 0 0 0
1252 1252 1 0 8.550000632362485 4.085722691852059 11.228019433844084 0 0 0
1253 1253 1 0 8.550005055509336 1.2497212138577747 13.684067238287124 0 0 0
1254 1254 1 0 8.549998453640772 1.958721022351664 12.45604264921757 0 0 0
1255 1255 1 0 8.550002872802613 3.3767199350089605 12.456043869882194 0 0 0
1256 1256 1 0 8.550002487675192 4.0857224848517175 13.684068713168196 0 0 0
1301 1301 1 0 8.550003464277944 5.503722288588143 11.228017936858379 0 0 0
1304 1304 1 0 8.550000993825517 8.339721765097023 11.228018480437628 0 0 0
1305 1305 1 0 8.550003820681559 5.503721307999339 13.684066293438317 0 0 0
1306 1306 1 0 8.549999720224331 6.212720992593546 12.456042206367187 0 0 0
1307 1307 1 0 8.550001285488216 7.630722339811421 12.45604243793625 0 0 0
1308 1308 1 0 8.549994627059359 8.339720781842484 13.684066632427312 0 0 0
2500 2500 1 0 5.200207328438995 2.667720162715296 11.227987311407876 0 0 0
2502 2502 1 0 5.200247300590761 0.5407212730198346 12.45602469274414 0 0 0
2503 2503 1 0 5.200212558466486 1.9587237616398239 12.456032640165285 0 0 0
2504 2504 1 0 5.200269330495544 2.6677225193488474 13.68406085659881 0 0 0
2549 2549 1 0 5.200183875462434 4.085724151696275 11.227996943518091 0 0 0
2552 2552 1 0 5.2002067140834 6.9217203282690045 11.22798754925888 0 0 0
2553 2553 1 0 5.200231201154209 4.085722699901068 13.684066893003644 0 0 0
2554 2554 1 0 5.200248179777551 4.794720251396238 12.45602545943581 0 0 0
2555 2555 1 0 5.200213304603564 6.212723185563183 12.456032762313786 0 0 0
2556 2556 1 0 5.2002675795357645 6.921721875997054 13.684061375406332 0 0 0
2601 2601 1 0 5.200183180050513 8.339724304677429 11.227996971415406 0 0 0
2605 2605 1 0 5.200230055801003 8.339722612866765 13.68406642738088 0 0 0
3745 3745 1 0 1.8475375884558098 1.2496745503074047 11.227366177216522 0 0 0
3748 3748 1 0 1.8478427409158273 4.085702072183335 11.227515808063389 0 0 0
3749 3749 1 0 1.8476290354729987 1.2497342087051477 13.683995760937325 0 0 0
3750 3750 1 0 1.8467994168676822 1.9586593819693396 12.45581327861603 0 0 0
3751 3751 1 0 1.8477177230805673 3.3767890997055177 12.455732209932773 0 0 0
3752 3752 1 0 1.8463280890948917 4.085701752607857 13.683929109717532 0 0 0
3797 3797 1 0 1.8475529793548384 5.503674445261255 11.227368281940414 0 0 0
3800 3800 1 0 1.8478417985252122 8.339700999922094 11.227516535383042 0 0 0
3801 3801 1 0 1.847786642050446 5.5037570613303295 13.683970998675035 0 0 0
3802 3802 1 0 1.8468002448626315 6.212660937995873 12.455821384053097 0 0 0
3803 3803 1 0 1.8477081886347848 7.630783221418303 12.455736459899816 0 0 0
3804 3804 1 0 1.8463211534641542 8.339695421607818 13.683930783376534 0 0 0
1257 1257 1 0 8.549999659464445 1.2497234860634219 16.140115065860925 0 0 0
1258 1258 1 0 8.549998512215788 1.958722385727877 14.912089811860143 0 0 0
1259 1259 1 0 8.550000927141193 3.376725981448778 14.912089846602674 0 0 0
1260 1260 1 0 8.550000693590531 4.085723025449112 16.140115257033553 0 0 0
1309 1309 1 0 8.550001699194892 5.50372188486495 16.140116171409428 0 0 0
1310 1310 1 0 8.549999549122068 6.212720355179469 14.912091543076471 0 0 0
1311 1311 1 0 8.550006003672186 7.6307234619654665 14.912091802797185 0 0 0
1312 1312 1 0 8.549995342908446 8.339722802396313 16.14011303060875 0 0 0
2506 2506 1 0 5.200277132621713 0.5407218503969289 14.912089990163938 0 0 0
2507 2507 1 0 5.200228952249822 1.9587220688539724 14.912092442417318 0 0 0
2508 2508 1 0 5.200276034358792 2.667721393272896 16.140114533042713 0 0 0
2557 2557 1 0 5.200229930109996 4.085722165420867 16.140115206982426 0 0 0
2558 2558 1 0 5.200275335999269 4.794721587219579 14.912089991262249 0 0 0
2559 2559 1 0 5.200235016895231 6.212721968253603 14.912092678584356 0 0 0
2560 2560 1 0 5.200275014959763 6.921721787354988 16.140114894288466 0 0 0
2609 2609 1 0 5.2002287349731775 8.339721664396462 16.140115298403334 0 0 0
3753 3753 1 0 1.847929312193058 1.249681123381048 16.140112011756333 0 0 0
3754 3754 1 0 1.8461366642585963 1.9586774988731621 14.912021282864918 0 0 0
3755 3755 1 0 1.8481183054557384 3.3767396438032944 14.91205815708942 0 0 0
3756 3756 1 0 1.8462498410032657 4.08573251522872 16.140101306961352 0 0 0
3805 3805 1 0 1.8482230100981822 5.503726159234604 16.14011292232819 0 0 0
3806 3806 1 0 1.8462258710148094 6.212722762075288 14.91203010660299 0 0 0
3807 3807 1 0 1.8480948889841455 7.630725705713316 14.912062455900212 0 0 0
3808 3808 1 0 1.8462379811251295 8.339720218633337 16.140101942934663 0 0 0
2 2 1 0 11.90001863508558 0.5407217524015998 10.000004926894762 0 0 0
3 3 1 0 11.900011695967827 1.9587213065784759 10.000000524962678 0 0 0
54 54 1 0 11.900007276758334 4.794724293940299 10.00000162420637 0 0 0
55 55 1 0 11.900009475648828 6.212720020429238 9.999998459622992 0 0 0
4 4 1 0 11.900017910497763 2.6677200274295383 11.228023365600055 0 0 0
6 6 1 0 11.900026693918164 0.5407197650932573 12.456049751522709 0 0 0
7 7 1 0 11.900021040981187 1.9587230555827098 12.45604788682361 0 0 0
8 8 1 0 11.900031293354562 2.667724900535785 13.684069546691779 0 0 0
53 53 1 0 11.899990882392952 4.085720691053659 11.22802140851498 0 0 0
56 56 1 0 11.90001984220667 6.921721357810727 11.228027580006225 0 0 0
57 57 1 0 11.900023463232563 4.085722247771098 13.684068972823814 0 0 0
58 58 1 0 11.90000138367002 4.794720152524201 12.456052834017592 0 0 0
59 59 1 0 11.900020995275804 6.212720834395679 12.456047814672566 0 0 0
60 60 1 0 11.9000253317341 6.921720394338507 13.684067260403719 0 0 0
105 105 1 0 11.900013179865638 8.339720282136517 11.228022648875717 0 0 0
109 109 1 0 11.900012998064934 8.339717539042944 13.684073699397896 0 0 0
10 10 1 0 11.900015762066483 0.5407305658558629 14.912092739242839 0 0 0
11 11 1 0 11.900030791593153 1.9587217011749716 14.912094039801737 0 0 0
12 12 1 0 11.899958944700684 2.6677284381699007 16.140081535850477 0 0 0
61 61 1 0 11.900016528160176 4.085729328544855 16.140113568076902 0 0 0
62 62 1 0 11.900022670533305 4.794723034201579 14.912094708284897 0 0 0
63 63 1 0 11.900030930145322 6.212721715772973 14.912096884414622 0 0 0
64 64 1 0 11.900029171245084 6.921725569686008 16.140118125135142 0 0 0
113 113 1 0 11.900022689986749 8.339727864647836 16.14012280671622 0 0 0
40272 19128 7 0.5564 15.58910777398201 7.5277029053391935 15.785334619269307 0 1 0
38815 18643 6 -1.1128 15.538383498115335 3.9007480321079466 14.698676180576477 0 0 0
23113 13409 6 -1.1128 15.370938146338103 4.292090804072963 11.829900492776968 0 1 0
23115 13409 7 0.5564 14.511633265469479 4.202522424655619 11.417827032014507 0 1 0
23114 13409 7 0.5564 15.873759185279853 3.5470598023691737 11.500760282490127 0 1 0
38816 18643 7 0.5564 16.16086227528085 3.1981646858430497 14.886104061819028 0 0 0
38817 18643 7 0.5564 15.671577703781931 4.098405559851734 13.7716254080884 0 0 0
40877 19330 7 0.5564 15.757006236423594 5.374489658562671 15.75497381667958 0 0 0
40876 19330 6 -1.1128 16.15918879018664 5.9716059276668 16.385793299852754 0 0 0
40271 19128 7 0.5564 15.313432770634456 8.480688995492333 14.641779312580333 0 1 0
40270 19128 6 -1.1128 15.803545334381715 8.402088688231753 15.460219108292538 0 1 0
13091 10068 7 0.5564 18.001901600809923 7.155666647737458 11.656032941081799 0 0 0
27465 14859 7 0.5564 18.335889151807873 4.877980431799156 12.775341870364654 0 0 0
27463 14859 6 -1.1128 18.114463563303985 5.418118676830339 12.016755139207822 0 0 0
41566 19560 6 -1.1128 16.595042377910712 1.2476396354480437 15.13173401636802 0 1 0
24793 13969 6 -1.1128 17.270650230494223 2.3721721149579738 11.835563008677786 0 1 0
24795 13969 7 0.5564 17.720105683002078 2.8657907959078366 12.521539208257531 0 1 0
40878 19330 7 0.5564 17.09555572439876 5.779694200995543 16.33462002091685 0 0 0
14555 10556 7 0.5564 17.530043539731725 8.251840716308896 14.928989294348979 1 0 0
41568 19560 7 0.5564 17.26630198068725 1.0365268661802782 15.780636883979113 0 1 0
27464 14859 7 0.5564 17.247586289670206 5.11264881184196 11.749464835250615 0 0 0
24794 13969 7 0.5564 17.929457133586006 2.2590640472469308 11.150426422676318 0 1 0
14556 10556 7 0.5564 18.079789467346764 7.946134465446172 13.551956066667824 1 0 0
41055 19389 7 0.5564 17.938659541560817 0.7253147727852662 13.947133909102112 0 0 0
41053 19389 6 -1.1128 18.512923147166084 0.12434146203295199 13.472492062519676 0 0 0
41567 19560 7 0.5564 16.30125474473706 0.39725657384518237 14.80497581308516 0 1 0
17564 11559 7 0.5564 16.121668067681444 0.42776048308973497 11.829944317985673 0 0 0
27151 14755 6 -1.1128 18.87330818298193 3.405434464670437 13.858408281126529 0 0 0
13090 10068 6 -1.1128 17.85632369214838 8.086616008792207 11.824479834553696 0 0 0
14554 10556 6 -1.1128 18.34040939283206 8.033124645128282 14.468876597019516 1 0 0
13092 10068 7 0.5564 16.913027690473516 8.159577238913279 11.969744551901798 0 0 0
35426 17513 7 0.5564 15.421382227295945 2.25995156974332 16.733559836364684 0 1 0
35427 17513 7 0.5564 14.200830505068668 3.081604918203789 17.089978926736254 0 1 0
41054 19389 7 0.5564 18.842301141221157 0.6388419708808533 12.735585212097655 0 0 0
34987 17367 6 -1.1128 18.910921830712073 2.4416278210009614 16.54126090435284 0 1 0
30611 15908 7 0.5564 18.970097972240556 6.692063436648681 15.491060849458531 0 0 0
30610 15908 6 -1.1128 19.055334117205767 5.986289370891839 16.1320363756793 0 0 0
27152 14755 7 0.5564 19.007901019933456 3.2413792076766974 14.791791105021105 0 0 0
1354 1354 1 0 8.549998882096583 10.466721787724346 9.999992968447737 0 0 0
1355 1355 1 0 8.549999580960918 11.884722771212772 9.999993557686942 0 0 0
1406 1406 1 0 8.549998481906917 14.720719238437121 9.99999533638543 0 0 0
1407 1407 1 0 8.550001437230225 16.138718436997607 9.999997145051893 0 0 0
2602 2602 1 0 5.200164023638987 9.048722013520777 9.999955848218393 0 0 0
2603 2603 1 0 5.200140595231377 10.466721464267623 9.999964905897297 0 0 0
2654 2654 1 0 5.200162296103491 13.30272189241294 9.999955670095853 0 0 0
2655 2655 1 0 5.200140462055087 14.720721359737784 9.999964929055315 0 0 0
3850 3850 1 0 1.8488947684013917 10.46662182859329 9.999459323922183 0 0 0
3851 3851 1 0 1.8486150647410342 11.884841719372268 9.999640930772037 0 0 0
3902 3902 1 0 1.8488937685126807 14.720621829519752 9.999459323232772 0 0 0
3903 3903 1 0 1.8486140659137618 16.1388407198211 9.999640931388868 0 0 0
1353 1353 1 0 8.550001010345222 9.757722061574997 11.228018671929329 0 0 0
1356 1356 1 0 8.550000244580547 12.593721190524986 11.228019125142417 0 0 0
1357 1357 1 0 8.550000775840626 9.757721560763965 13.68406862735244 0 0 0
1358 1358 1 0 8.55000139928106 10.466721801298677 12.45604270149983 0 0 0
1359 1359 1 0 8.549999874061148 11.884721810868045 12.4560431032483 0 0 0
1360 1360 1 0 8.550006856089137 12.593723102788697 13.684067133564861 0 0 0
1405 1405 1 0 8.549998123922792 14.011721103090627 11.228018639731806 0 0 0
1408 1408 1 0 8.549997767060589 16.84772260651015 11.228019880166029 0 0 0
1409 1409 1 0 8.55000049759069 14.011722681121823 13.684068364848187 0 0 0
1410 1410 1 0 8.550002486682256 14.72072159975698 12.456043416519702 0 0 0
1411 1411 1 0 8.549999306401682 16.138721297132456 12.456044752572213 0 0 0
1412 1412 1 0 8.550006742504156 16.847720676155728 13.684067481900755 0 0 0
2604 2604 1 0 5.200206804373206 11.1757201889709 11.227987494629257 0 0 0
2606 2606 1 0 5.200246755946546 9.048721260690943 12.456025197675306 0 0 0
2607 2607 1 0 5.200212552951082 10.466723182760177 12.456032664370442 0 0 0
2608 2608 1 0 5.200268098164791 11.17572180287332 13.684061127363808 0 0 0
2653 2653 1 0 5.200183188409141 12.593724730698813 11.22799686497782 0 0 0
2656 2656 1 0 5.2002062975881564 15.429720187773231 11.22798740618304 0 0 0
2657 2657 1 0 5.200226333903498 12.59372238021298 13.684066829603559 0 0 0
2658 2658 1 0 5.200245848820046 13.302721370438697 12.456025119212327 0 0 0
2659 2659 1 0 5.200210437949151 14.72072358981973 12.456032667996814 0 0 0
2660 2660 1 0 5.2002672285311675 15.429722290248005 13.684062219768604 0 0 0
2705 2705 1 0 5.200182669168487 16.84772537465363 11.227997707368097 0 0 0
2709 2709 1 0 5.200228761887649 16.847723120746064 13.68406763845112 0 0 0
3849 3849 1 0 1.8475529139205287 9.757675274803843 11.227368382805192 0 0 0
3852 3852 1 0 1.8478407768900167 12.593701011464983 11.227516542913449 0 0 0
3853 3853 1 0 1.8477859445823623 9.757757364591026 13.683971109601291 0 0 0
3854 3854 1 0 1.8467991608950294 10.466660630041178 12.45582162559513 0 0 0
3855 3855 1 0 1.8477068939175265 11.884784125242103 12.45573650153286 0 0 0
3856 3856 1 0 1.8463212636055926 12.593695399331514 13.683930785825627 0 0 0
3901 3901 1 0 1.8475518711538443 14.011675276509479 11.227368388697805 0 0 0
3904 3904 1 0 1.8478407866481814 16.84770201480595 11.22751653902084 0 0 0
3905 3905 1 0 1.8477859983650513 14.011757371942785 13.683971126350569 0 0 0
3906 3906 1 0 1.8467992200242291 14.720660630778083 12.455821624368662 0 0 0
3907 3907 1 0 1.8477069440742926 16.138783094215384 12.45573651525465 0 0 0
3908 3908 1 0 1.8463212256417265 16.847696428179823 13.683930810797872 0 0 0
1361 1361 1 0 8.550004576419107 9.757720322665147 16.140118734710267 0 0 0
1362 1362 1 0 8.550001789485025 10.46672322418856 14.912090010197943 0 0 0
1363 1363 1 0 8.54999794583564 11.884720946269844 14.912091137651815 0 0 0
1364 1364 1 0 8.550000898100208 12.593723106440581 16.14011396781906 0 0 0
1413 1413 1 0 8.550003355921246 14.011722828471315 16.14011457087009 0 0 0
1414 1414 1 0 8.549999011739343 14.720721899211371 14.91209190057574 0 0 0
1415 1415 1 0 8.550004545863006 16.138724093840167 14.91209134287394 0 0 0
1416 1416 1 0 8.54999888749129 16.847721713756968 16.14011558057622 0 0 0
2610 2610 1 0 5.200274908462869 9.04872241305755 14.912090279702344 0 0 0
2611 2611 1 0 5.200229917180166 10.466722052106208 14.912092139043832 0 0 0
2612 2612 1 0 5.200276782412032 11.175722213472751 16.140114799732135 0 0 0
2661 2661 1 0 5.200230175038109 12.593721678609276 16.14011581047508 0 0 0
2662 2662 1 0 5.200274035301497 13.30272179700883 14.912090176325547 0 0 0
2663 2663 1 0 5.2002333051602205 14.720722004347468 14.912093821533189 0 0 0
2664 2664 1 0 5.2002764881096555 15.429721760330828 16.140114759546673 0 0 0
2713 2713 1 0 5.2002282833566165 16.847722682092538 16.140116550530433 0 0 0
3857 3857 1 0 1.848224004352055 9.757725866398102 16.140112978960776 0 0 0
3858 3858 1 0 1.8462251891628496 10.46672231330428 14.912030234437772 0 0 0
3859 3859 1 0 1.8480949210039415 11.884726527688441 14.91206249982272 0 0 0
3860 3860 1 0 1.846238170879909 12.593720255945756 16.140101953084812 0 0 0
3909 3909 1 0 1.8482241906768635 14.011725857654628 16.140112985138707 0 0 0
3910 3910 1 0 1.846225257135156 14.72072231294624 14.912030239574172 0 0 0
3911 3911 1 0 1.8480948759458533 16.138725467678945 14.912062507395127 0 0 0
3912 3912 1 0 1.846238121856958 16.84772128842744 16.140102948974196 0 0 0
22638 13250 7 0.5564 15.378551772285416 9.55938225715751 16.79768760403861 0 0 0
23439 13517 7 0.5564 14.33554690997987 9.201745823953853 12.54777367177558 0 1 0
40549 19221 6 -1.1128 18.665058274730495 10.687404922291103 11.743562375527027 0 0 0
17539 11551 6 -1.1128 16.043467218152937 11.657498491501396 11.83626253241518 0 0 0
17540 11551 7 0.5564 16.00137018496741 11.821462556544068 12.778374782346097 0 0 0